TITLE     = "Time Series Plot"
VARIABLES = "Solution Time"
"P[psf]"
ZONE T="Time Series Plot Zone"
 STRANDID=0, SOLUTIONTIME=0
 I=18000, J=1, K=1, ZONETYPE=Ordered
 DATAPACKING=POINT
 DT=(SINGLE SINGLE )
 0.000000000E+00 -6.390230656E-01
 4.166666622E-05 -6.390242577E-01
 8.333333244E-05 -6.390242577E-01
 1.250000059E-04 -6.390256286E-01
 1.666666649E-04 -6.390256286E-01
 2.083333384E-04 -6.390268207E-01
 2.500000119E-04 -6.390268207E-01
 2.916666563E-04 -6.390280128E-01
 3.333333298E-04 -6.390277743E-01
 3.750000033E-04 -6.390287280E-01
 4.166666768E-04 -6.390282512E-01
 4.583333211E-04 -6.390289664E-01
 5.000000237E-04 -6.390283108E-01
 5.416666390E-04 -6.390288472E-01
 5.833333125E-04 -6.390280128E-01
 6.249999860E-04 -6.390283108E-01
 6.666666595E-04 -6.390272975E-01
 7.083333330E-04 -6.390275955E-01
 7.500000065E-04 -6.390264630E-01
 7.916666800E-04 -6.390267015E-01
 8.333333535E-04 -6.390255690E-01
 8.750000270E-04 -6.390258670E-01
 9.166666423E-04 -6.390248537E-01
 9.583333158E-04 -6.390252113E-01
 1.000000047E-03 -6.390243173E-01
 1.041666721E-03 -6.390247941E-01
 1.083333278E-03 -6.390241385E-01
 1.124999952E-03 -6.390247345E-01
 1.166666625E-03 -6.390240192E-01
 1.208333299E-03 -6.390247941E-01
 1.249999972E-03 -6.390243769E-01
 1.291666646E-03 -6.390252709E-01
 1.333333319E-03 -6.390248537E-01
 1.374999993E-03 -6.390258670E-01
 1.416666666E-03 -6.390257478E-01
 1.458333340E-03 -6.390271187E-01
 1.500000013E-03 -6.390272975E-01
 1.541666687E-03 -6.390289664E-01
 1.583333360E-03 -6.390295029E-01
 1.625000034E-03 -6.390313506E-01
 1.666666707E-03 -6.390318871E-01
 1.708333381E-03 -6.390340924E-01
 1.750000054E-03 -6.390349865E-01
 1.791666611E-03 -6.390370727E-01
 1.833333285E-03 -6.390379667E-01
 1.874999958E-03 -6.390399933E-01
 1.916666632E-03 -6.390404105E-01
 1.958333421E-03 -6.390420794E-01
 2.000000095E-03 -6.390422583E-01
 2.041666768E-03 -6.390435696E-01
 2.083333442E-03 -6.390433908E-01
 2.125000115E-03 -6.390443444E-01
 2.166666556E-03 -6.390438676E-01
 2.208333230E-03 -6.390445232E-01
 2.249999903E-03 -6.390436888E-01
 2.291666577E-03 -6.390441656E-01
 2.333333250E-03 -6.390433311E-01
 2.374999924E-03 -6.390438080E-01
 2.416666597E-03 -6.390432119E-01
 2.458333271E-03 -6.390441656E-01
 2.499999944E-03 -6.390438676E-01
 2.541666618E-03 -6.390450597E-01
 2.583333291E-03 -6.390450001E-01
 2.624999965E-03 -6.390463114E-01
 2.666666638E-03 -6.390463114E-01
 2.708333312E-03 -6.390476823E-01
 2.749999985E-03 -6.390477419E-01
 2.791666659E-03 -6.390491724E-01
 2.833333332E-03 -6.390494704E-01
 2.875000006E-03 -6.390511990E-01
 2.916666679E-03 -6.390515566E-01
 2.958333353E-03 -6.390532255E-01
 3.000000026E-03 -6.390534639E-01
 3.041666700E-03 -6.390548944E-01
 3.083333373E-03 -6.390548348E-01
 3.125000047E-03 -6.390561461E-01
 3.166666720E-03 -6.390562654E-01
 3.208333394E-03 -6.390576959E-01
 3.250000067E-03 -6.390578151E-01
 3.291666741E-03 -6.390593052E-01
 3.333333414E-03 -6.390595436E-01
 3.375000088E-03 -6.390612125E-01
 3.416666761E-03 -6.390614510E-01
 3.458333435E-03 -6.390631795E-01
 3.500000108E-03 -6.390635371E-01
 3.541666782E-03 -6.390649676E-01
 3.583333222E-03 -6.390650272E-01
 3.624999896E-03 -6.390663981E-01
 3.666666569E-03 -6.390661597E-01
 3.708333243E-03 -6.390670538E-01
 3.749999916E-03 -6.390663385E-01
 3.791666590E-03 -6.390668750E-01
 3.833333263E-03 -6.390658617E-01
 3.874999937E-03 -6.390661597E-01
 3.916666843E-03 -6.390650868E-01
 3.958333284E-03 -6.390652657E-01
 4.000000190E-03 -6.390642524E-01
 4.041666631E-03 -6.390646100E-01
 4.083333537E-03 -6.390637159E-01
 4.124999978E-03 -6.390643120E-01
 4.166666884E-03 -6.390636563E-01
 4.208333325E-03 -6.390646696E-01
 4.250000231E-03 -6.390643716E-01
 4.291666672E-03 -6.390653253E-01
 4.333333112E-03 -6.390652061E-01
 4.375000019E-03 -6.390663981E-01
 4.416666459E-03 -6.390661597E-01
 4.458333366E-03 -6.390672326E-01
 4.499999806E-03 -6.390669942E-01
 4.541666713E-03 -6.390680075E-01
 4.583333153E-03 -6.390675306E-01
 4.625000060E-03 -6.390683651E-01
 4.666666500E-03 -6.390678287E-01
 4.708333407E-03 -6.390686035E-01
 4.749999847E-03 -6.390678287E-01
 4.791666754E-03 -6.390683651E-01
 4.833333194E-03 -6.390674710E-01
 4.875000101E-03 -6.390677094E-01
 4.916666541E-03 -6.390663981E-01
 4.958333448E-03 -6.390662789E-01
 4.999999888E-03 -6.390646100E-01
 5.041666795E-03 -6.390643120E-01
 5.083333235E-03 -6.390626431E-01
 5.125000142E-03 -6.390622854E-01
 5.166666582E-03 -6.390606165E-01
 5.208333489E-03 -6.390604377E-01
 5.249999929E-03 -6.390588284E-01
 5.291666836E-03 -6.390583515E-01
 5.333333276E-03 -6.390566230E-01
 5.375000183E-03 -6.390563846E-01
 5.416666623E-03 -6.390546560E-01
 5.458333530E-03 -6.390540004E-01
 5.499999970E-03 -6.390521526E-01
 5.541666877E-03 -6.390516758E-01
 5.583333317E-03 -6.390496492E-01
 5.625000224E-03 -6.390489936E-01
 5.666666664E-03 -6.390472054E-01
 5.708333105E-03 -6.390467286E-01
 5.750000011E-03 -6.390448213E-01
 5.791666452E-03 -6.390445232E-01
 5.833333358E-03 -6.390430927E-01
 5.874999799E-03 -6.390431523E-01
 5.916666705E-03 -6.390416622E-01
 5.958333146E-03 -6.390417218E-01
 6.000000052E-03 -6.390404701E-01
 6.041666493E-03 -6.390407085E-01
 6.083333399E-03 -6.390395761E-01
 6.124999840E-03 -6.390399933E-01
 6.166666746E-03 -6.390390992E-01
 6.208333187E-03 -6.390396953E-01
 6.250000093E-03 -6.390390396E-01
 6.291666534E-03 -6.390398145E-01
 6.333333440E-03 -6.390393972E-01
 6.374999881E-03 -6.390403509E-01
 6.416666787E-03 -6.390401125E-01
 6.458333228E-03 -6.390412450E-01
 6.500000134E-03 -6.390410662E-01
 6.541666575E-03 -6.390423775E-01
 6.583333481E-03 -6.390422583E-01
 6.624999922E-03 -6.390433908E-01
 6.666666828E-03 -6.390430927E-01
 6.708333269E-03 -6.390441060E-01
 6.750000175E-03 -6.390435696E-01
 6.791666616E-03 -6.390442252E-01
 6.833333522E-03 -6.390432715E-01
 6.874999963E-03 -6.390437484E-01
 6.916666869E-03 -6.390425563E-01
 6.958333310E-03 -6.390427351E-01
 7.000000216E-03 -6.390416026E-01
 7.041666657E-03 -6.390419006E-01
 7.083333563E-03 -6.390408278E-01
 7.125000004E-03 -6.390411854E-01
 7.166666444E-03 -6.390402913E-01
 7.208333351E-03 -6.390409470E-01
 7.249999791E-03 -6.390402317E-01
 7.291666698E-03 -6.390410066E-01
 7.333333138E-03 -6.390404105E-01
 7.375000045E-03 -6.390408874E-01
 7.416666485E-03 -6.390399933E-01
 7.458333392E-03 -6.390403509E-01
 7.499999832E-03 -6.390391588E-01
 7.541666739E-03 -6.390394568E-01
 7.583333179E-03 -6.390382051E-01
 7.625000086E-03 -6.390382051E-01
 7.666666526E-03 -6.390367746E-01
 7.708333433E-03 -6.390366554E-01
 7.749999873E-03 -6.390350461E-01
 7.791666780E-03 -6.390348077E-01
 7.833333686E-03 -6.390331388E-01
 7.875000127E-03 -6.390329599E-01
 7.916666567E-03 -6.390312910E-01
 7.958333008E-03 -6.390311122E-01
 8.000000380E-03 -6.390295625E-01
 8.041666821E-03 -6.390293837E-01
 8.083333261E-03 -6.390279531E-01
 8.124999702E-03 -6.390278935E-01
 8.166667074E-03 -6.390264630E-01
 8.208333515E-03 -6.390264630E-01
 8.249999955E-03 -6.390250325E-01
 8.291666396E-03 -6.390250921E-01
 8.333333768E-03 -6.390236616E-01
 8.375000209E-03 -6.390237808E-01
 8.416666649E-03 -6.390224695E-01
 8.458333090E-03 -6.390227079E-01
 8.500000462E-03 -6.390216947E-01
 8.541666903E-03 -6.390220523E-01
 8.583333343E-03 -6.390211582E-01
 8.624999784E-03 -6.390217543E-01
 8.666666225E-03 -6.390210390E-01
 8.708333597E-03 -6.390218735E-01
 8.750000037E-03 -6.390212774E-01
 8.791666478E-03 -6.390221119E-01
 8.833332919E-03 -6.390213966E-01
 8.875000291E-03 -6.390220523E-01
 8.916666731E-03 -6.390213370E-01
 8.958333172E-03 -6.390222311E-01
 8.999999613E-03 -6.390218139E-01
 9.041666985E-03 -6.390230060E-01
 9.083333425E-03 -6.390228271E-01
 9.124999866E-03 -6.390241981E-01
 9.166666307E-03 -6.390243173E-01
 9.208333679E-03 -6.390262246E-01
 9.250000119E-03 -6.390267611E-01
 9.291666560E-03 -6.390287280E-01
 9.333333001E-03 -6.390292048E-01
 9.375000373E-03 -6.390309334E-01
 9.416666813E-03 -6.390309930E-01
 9.458333254E-03 -6.390324235E-01
 9.499999695E-03 -6.390323639E-01
 9.541667067E-03 -6.390335560E-01
 9.583333507E-03 -6.390331984E-01
 9.624999948E-03 -6.390342712E-01
 9.666666389E-03 -6.390336752E-01
 9.708333760E-03 -6.390345097E-01
 9.750000201E-03 -6.390337348E-01
 9.791666642E-03 -6.390344501E-01
 9.833333082E-03 -6.390335560E-01
 9.875000454E-03 -6.390339136E-01
 9.916666895E-03 -6.390327215E-01
 9.958333336E-03 -6.390330791E-01
 9.999999776E-03 -6.390319467E-01
 1.004166622E-02 -6.390325427E-01
 1.008333359E-02 -6.390318274E-01
 1.012500003E-02 -6.390327811E-01
 1.016666647E-02 -6.390323639E-01
 1.020833291E-02 -6.390334368E-01
 1.025000028E-02 -6.390333772E-01
 1.029166672E-02 -6.390346885E-01
 1.033333316E-02 -6.390346885E-01
 1.037499961E-02 -6.390361190E-01
 1.041666698E-02 -6.390359998E-01
 1.045833342E-02 -6.390373707E-01
 1.049999986E-02 -6.390371323E-01
 1.054166630E-02 -6.390385032E-01
 1.058333367E-02 -6.390383840E-01
 1.062500011E-02 -6.390395761E-01
 1.066666655E-02 -6.390393376E-01
 1.070833299E-02 -6.390404105E-01
 1.075000037E-02 -6.390400529E-01
 1.079166681E-02 -6.390411258E-01
 1.083333325E-02 -6.390409470E-01
 1.087499969E-02 -6.390420198E-01
 1.091666706E-02 -6.390414834E-01
 1.095833350E-02 -6.390424371E-01
 1.099999994E-02 -6.390417218E-01
 1.104166638E-02 -6.390423775E-01
 1.108333375E-02 -6.390416622E-01
 1.112500019E-02 -6.390423775E-01
 1.116666663E-02 -6.390416622E-01
 1.120833308E-02 -6.390423775E-01
 1.125000045E-02 -6.390415430E-01
 1.129166689E-02 -6.390420794E-01
 1.133333333E-02 -6.390410066E-01
 1.137499977E-02 -6.390414238E-01
 1.141666621E-02 -6.390402317E-01
 1.145833358E-02 -6.390405893E-01
 1.150000002E-02 -6.390395164E-01
 1.154166646E-02 -6.390399337E-01
 1.158333290E-02 -6.390390396E-01
 1.162500028E-02 -6.390398741E-01
 1.166666672E-02 -6.390393972E-01
 1.170833316E-02 -6.390402317E-01
 1.174999960E-02 -6.390395164E-01
 1.179166697E-02 -6.390405893E-01
 1.183333341E-02 -6.390399933E-01
 1.187499985E-02 -6.390408278E-01
 1.191666629E-02 -6.390404701E-01
 1.195833366E-02 -6.390412450E-01
 1.200000010E-02 -6.390404701E-01
 1.204166654E-02 -6.390413046E-01
 1.208333299E-02 -6.390404701E-01
 1.212500036E-02 -6.390411258E-01
 1.216666680E-02 -6.390403509E-01
 1.220833324E-02 -6.390410662E-01
 1.224999968E-02 -6.390402317E-01
 1.229166705E-02 -6.390407085E-01
 1.233333349E-02 -6.390399337E-01
 1.237499993E-02 -6.390404105E-01
 1.241666637E-02 -6.390391588E-01
 1.245833375E-02 -6.390395164E-01
 1.250000019E-02 -6.390383244E-01
 1.254166663E-02 -6.390386224E-01
 1.258333307E-02 -6.390373111E-01
 1.262500044E-02 -6.390374899E-01
 1.266666688E-02 -6.390361190E-01
 1.270833332E-02 -6.390361190E-01
 1.274999976E-02 -6.390346289E-01
 1.279166620E-02 -6.390346289E-01
 1.283333357E-02 -6.390331388E-01
 1.287500001E-02 -6.390331388E-01
 1.291666646E-02 -6.390317082E-01
 1.295833290E-02 -6.390320659E-01
 1.300000027E-02 -6.390309930E-01
 1.304166671E-02 -6.390315294E-01
 1.308333315E-02 -6.390307546E-01
 1.312499959E-02 -6.390314698E-01
 1.316666696E-02 -6.390306950E-01
 1.320833340E-02 -6.390314698E-01
 1.324999984E-02 -6.390306354E-01
 1.329166628E-02 -6.390312910E-01
 1.333333366E-02 -6.390305161E-01
 1.337500010E-02 -6.390312910E-01
 1.341666654E-02 -6.390305758E-01
 1.345833298E-02 -6.390315890E-01
 1.350000035E-02 -6.390310526E-01
 1.354166679E-02 -6.390321255E-01
 1.358333323E-02 -6.390318871E-01
 1.362499967E-02 -6.390331984E-01
 1.366666704E-02 -6.390329599E-01
 1.370833348E-02 -6.390342712E-01
 1.374999993E-02 -6.390339732E-01
 1.379166637E-02 -6.390350461E-01
 1.383333374E-02 -6.390346289E-01
 1.387500018E-02 -6.390357018E-01
 1.391666662E-02 -6.390350461E-01
 1.395833306E-02 -6.390357614E-01
 1.400000043E-02 -6.390349865E-01
 1.404166687E-02 -6.390356421E-01
 1.408333331E-02 -6.390349269E-01
 1.412499975E-02 -6.390358210E-01
 1.416666713E-02 -6.390353441E-01
 1.420833357E-02 -6.390367150E-01
 1.425000001E-02 -6.390365958E-01
 1.429166645E-02 -6.390382051E-01
 1.433333289E-02 -6.390382051E-01
 1.437500026E-02 -6.390397549E-01
 1.441666670E-02 -6.390396357E-01
 1.445833314E-02 -6.390409470E-01
 1.449999958E-02 -6.390404701E-01
 1.454166695E-02 -6.390414238E-01
 1.458333340E-02 -6.390408874E-01
 1.462499984E-02 -6.390416622E-01
 1.466666628E-02 -6.390407681E-01
 1.470833365E-02 -6.390414238E-01
 1.475000009E-02 -6.390403509E-01
 1.479166653E-02 -6.390407085E-01
 1.483333297E-02 -6.390396953E-01
 1.487500034E-02 -6.390402317E-01
 1.491666678E-02 -6.390392184E-01
 1.495833322E-02 -6.390398145E-01
 1.499999966E-02 -6.390388012E-01
 1.504166704E-02 -6.390393972E-01
 1.508333348E-02 -6.390386224E-01
 1.512499992E-02 -6.390393972E-01
 1.516666636E-02 -6.390385628E-01
 1.520833373E-02 -6.390391588E-01
 1.525000017E-02 -6.390382051E-01
 1.529166661E-02 -6.390387416E-01
 1.533333305E-02 -6.390376687E-01
 1.537500042E-02 -6.390380859E-01
 1.541666687E-02 -6.390368342E-01
 1.545833331E-02 -6.390370727E-01
 1.549999975E-02 -6.390359998E-01
 1.554166712E-02 -6.390364766E-01
 1.558333356E-02 -6.390354037E-01
 1.562500000E-02 -6.390360594E-01
 1.566666737E-02 -6.390351653E-01
 1.570833288E-02 -6.390358806E-01
 1.575000025E-02 -6.390351653E-01
 1.579166576E-02 -6.390360594E-01
 1.583333313E-02 -6.390354037E-01
 1.587500051E-02 -6.390361786E-01
 1.591666602E-02 -6.390354037E-01
 1.595833339E-02 -6.390360594E-01
 1.600000076E-02 -6.390351653E-01
 1.604166627E-02 -6.390357018E-01
 1.608333364E-02 -6.390348077E-01
 1.612499915E-02 -6.390354633E-01
 1.616666652E-02 -6.390344501E-01
 1.620833389E-02 -6.390350461E-01
 1.624999940E-02 -6.390342116E-01
 1.629166678E-02 -6.390350461E-01
 1.633333415E-02 -6.390342712E-01
 1.637499966E-02 -6.390351057E-01
 1.641666703E-02 -6.390345693E-01
 1.645833254E-02 -6.390355825E-01
 1.649999991E-02 -6.390349865E-01
 1.654166728E-02 -6.390359402E-01
 1.658333279E-02 -6.390352845E-01
 1.662500016E-02 -6.390359998E-01
 1.666666754E-02 -6.390350461E-01
 1.670833305E-02 -6.390355229E-01
 1.675000042E-02 -6.390342712E-01
 1.679166593E-02 -6.390346289E-01
 1.683333330E-02 -6.390333176E-01
 1.687500067E-02 -6.390334964E-01
 1.691666618E-02 -6.390320659E-01
 1.695833355E-02 -6.390320659E-01
 1.700000092E-02 -6.390305758E-01
 1.704166643E-02 -6.390306354E-01
 1.708333381E-02 -6.390292645E-01
 1.712499931E-02 -6.390296221E-01
 1.716666669E-02 -6.390283704E-01
 1.720833406E-02 -6.390288472E-01
 1.724999957E-02 -6.390277743E-01
 1.729166694E-02 -6.390283108E-01
 1.733333245E-02 -6.390272379E-01
 1.737499982E-02 -6.390274167E-01
 1.741666719E-02 -6.390258074E-01
 1.745833270E-02 -6.390256286E-01
 1.750000007E-02 -6.390239000E-01
 1.754166745E-02 -6.390237808E-01
 1.758333296E-02 -6.390219331E-01
 1.762500033E-02 -6.390219331E-01
 1.766666584E-02 -6.390204430E-01
 1.770833321E-02 -6.390205622E-01
 1.775000058E-02 -6.390194893E-01
 1.779166609E-02 -6.390202045E-01
 1.783333346E-02 -6.390195489E-01
 1.787500083E-02 -6.390206814E-01
 1.791666634E-02 -6.390203834E-01
 1.795833372E-02 -6.390216947E-01
 1.799999923E-02 -6.390213966E-01
 1.804166660E-02 -6.390226483E-01
 1.808333397E-02 -6.390223503E-01
 1.812499948E-02 -6.390236020E-01
 1.816666685E-02 -6.390233040E-01
 1.820833422E-02 -6.390245557E-01
 1.824999973E-02 -6.390242577E-01
 1.829166710E-02 -6.390253901E-01
 1.833333261E-02 -6.390247941E-01
 1.837499999E-02 -6.390256882E-01
 1.841666736E-02 -6.390247941E-01
 1.845833287E-02 -6.390250921E-01
 1.850000024E-02 -6.390237808E-01
 1.854166575E-02 -6.390240192E-01
 1.858333312E-02 -6.390224099E-01
 1.862500049E-02 -6.390224099E-01
 1.866666600E-02 -6.390207410E-01
 1.870833337E-02 -6.390205026E-01
 1.875000075E-02 -6.390186548E-01
 1.879166625E-02 -6.390185356E-01
 1.883333363E-02 -6.390166879E-01
 1.887499914E-02 -6.390164495E-01
 1.891666651E-02 -6.390146017E-01
 1.895833388E-02 -6.390144825E-01
 1.899999939E-02 -6.390128732E-01
 1.904166676E-02 -6.390132308E-01
 1.908333413E-02 -6.390120983E-01
 1.912499964E-02 -6.390126944E-01
 1.916666701E-02 -6.390119791E-01
 1.920833252E-02 -6.390128732E-01
 1.924999990E-02 -6.390121579E-01
 1.929166727E-02 -6.390130520E-01
 1.933333278E-02 -6.390123963E-01
 1.937500015E-02 -6.390131712E-01
 1.941666752E-02 -6.390122771E-01
 1.945833303E-02 -6.390131712E-01
 1.950000040E-02 -6.390122175E-01
 1.954166591E-02 -6.390129924E-01
 1.958333328E-02 -6.390121579E-01
 1.962500066E-02 -6.390129924E-01
 1.966666616E-02 -6.390124559E-01
 1.970833354E-02 -6.390137076E-01
 1.975000091E-02 -6.390135288E-01
 1.979166642E-02 -6.390150189E-01
 1.983333379E-02 -6.390147805E-01
 1.987499930E-02 -6.390161514E-01
 1.991666667E-02 -6.390158534E-01
 1.995833404E-02 -6.390171051E-01
 1.999999955E-02 -6.390166283E-01
 2.004166692E-02 -6.390178204E-01
 2.008333243E-02 -6.390172243E-01
 2.012499981E-02 -6.390179396E-01
 2.016666718E-02 -6.390169859E-01
 2.020833269E-02 -6.390175223E-01
 2.025000006E-02 -6.390161514E-01
 2.029166743E-02 -6.390163302E-01
 2.033333294E-02 -6.390146613E-01
 2.037500031E-02 -6.390143037E-01
 2.041666582E-02 -6.390122771E-01
 2.045833319E-02 -6.390118599E-01
 2.050000057E-02 -6.390097737E-01
 2.054166608E-02 -6.390094757E-01
 2.058333345E-02 -6.390076280E-01
 2.062500082E-02 -6.390075088E-01
 2.066666633E-02 -6.390059590E-01
 2.070833370E-02 -6.390060186E-01
 2.074999921E-02 -6.390045881E-01
 2.079166658E-02 -6.390050054E-01
 2.083333395E-02 -6.390038133E-01
 2.087499946E-02 -6.390042305E-01
 2.091666684E-02 -6.390032172E-01
 2.095833421E-02 -6.390038133E-01
 2.099999972E-02 -6.390026808E-01
 2.104166709E-02 -6.390031576E-01
 2.108333260E-02 -6.390021443E-01
 2.112499997E-02 -6.390028596E-01
 2.116666734E-02 -6.390019059E-01
 2.120833285E-02 -6.390027404E-01
 2.125000022E-02 -6.390021443E-01
 2.129166760E-02 -6.390030980E-01
 2.133333310E-02 -6.390026212E-01
 2.137500048E-02 -6.390039325E-01
 2.141666599E-02 -6.390035748E-01
 2.145833336E-02 -6.390049458E-01
 2.150000073E-02 -6.390049458E-01
 2.154166624E-02 -6.390066147E-01
 2.158333361E-02 -6.390067935E-01
 2.162499912E-02 -6.390086412E-01
 2.166666649E-02 -6.390088797E-01
 2.170833386E-02 -6.390107870E-01
 2.174999937E-02 -6.390110254E-01
 2.179166675E-02 -6.390130520E-01
 2.183333412E-02 -6.390134692E-01
 2.187499963E-02 -6.390155554E-01
 2.191666700E-02 -6.390159726E-01
 2.195833251E-02 -6.390179396E-01
 2.199999988E-02 -6.390182376E-01
 2.204166725E-02 -6.390200257E-01
 2.208333276E-02 -6.390199065E-01
 2.212500013E-02 -6.390215158E-01
 2.216666751E-02 -6.390213966E-01
 2.220833302E-02 -6.390227675E-01
 2.225000039E-02 -6.390224099E-01
 2.229166590E-02 -6.390239000E-01
 2.233333327E-02 -6.390237212E-01
 2.237500064E-02 -6.390252709E-01
 2.241666615E-02 -6.390252113E-01
 2.245833352E-02 -6.390267611E-01
 2.250000089E-02 -6.390267015E-01
 2.254166640E-02 -6.390281320E-01
 2.258333378E-02 -6.390278935E-01
 2.262499928E-02 -6.390293241E-01
 2.266666666E-02 -6.390290260E-01
 2.270833403E-02 -6.390304565E-01
 2.274999954E-02 -6.390302777E-01
 2.279166691E-02 -6.390316486E-01
 2.283333242E-02 -6.390313506E-01
 2.287499979E-02 -6.390327811E-01
 2.291666716E-02 -6.390323639E-01
 2.295833267E-02 -6.390336752E-01
 2.300000004E-02 -6.390334964E-01
 2.304166742E-02 -6.390349269E-01
 2.308333293E-02 -6.390345693E-01
 2.312500030E-02 -6.390360594E-01
 2.316666581E-02 -6.390358210E-01
 2.320833318E-02 -6.390372515E-01
 2.325000055E-02 -6.390369534E-01
 2.329166606E-02 -6.390384436E-01
 2.333333343E-02 -6.390382051E-01
 2.337500080E-02 -6.390397549E-01
 2.341666631E-02 -6.390396953E-01
 2.345833369E-02 -6.390414238E-01
 2.349999920E-02 -6.390413642E-01
 2.354166657E-02 -6.390428543E-01
 2.358333394E-02 -6.390426159E-01
 2.362499945E-02 -6.390440464E-01
 2.366666682E-02 -6.390438080E-01
 2.370833419E-02 -6.390452981E-01
 2.374999970E-02 -6.390448809E-01
 2.379166707E-02 -6.390461922E-01
 2.383333258E-02 -6.390456557E-01
 2.387499996E-02 -6.390469074E-01
 2.391666733E-02 -6.390464306E-01
 2.395833284E-02 -6.390479207E-01
 2.400000021E-02 -6.390477419E-01
 2.404166758E-02 -6.390489936E-01
 2.408333309E-02 -6.390484571E-01
 2.412500046E-02 -6.390498281E-01
 2.416666597E-02 -6.390493512E-01
 2.420833334E-02 -6.390507221E-01
 2.425000072E-02 -6.390504241E-01
 2.429166622E-02 -6.390517354E-01
 2.433333360E-02 -6.390512586E-01
 2.437499911E-02 -6.390525103E-01
 2.441666648E-02 -6.390520334E-01
 2.445833385E-02 -6.390531063E-01
 2.449999936E-02 -6.390523314E-01
 2.454166673E-02 -6.390531063E-01
 2.458333410E-02 -6.390521526E-01
 2.462499961E-02 -6.390529275E-01
 2.466666698E-02 -6.390519142E-01
 2.470833249E-02 -6.390525699E-01
 2.474999987E-02 -6.390513182E-01
 2.479166724E-02 -6.390516758E-01
 2.483333275E-02 -6.390501857E-01
 2.487500012E-02 -6.390501261E-01
 2.491666749E-02 -6.390482783E-01
 2.495833300E-02 -6.390480399E-01
 2.500000037E-02 -6.390457749E-01
 2.504166588E-02 -6.390452385E-01
 2.508333325E-02 -6.390429735E-01
 2.512500063E-02 -6.390424967E-01
 2.516666614E-02 -6.390402317E-01
 2.520833351E-02 -6.390396357E-01
 2.525000088E-02 -6.390374303E-01
 2.529166639E-02 -6.390367746E-01
 2.533333376E-02 -6.390343308E-01
 2.537499927E-02 -6.390337944E-01
 2.541666664E-02 -6.390314102E-01
 2.545833401E-02 -6.390306950E-01
 2.549999952E-02 -6.390283704E-01
 2.554166690E-02 -6.390278935E-01
 2.558333240E-02 -6.390257478E-01
 2.562499978E-02 -6.390254498E-01
 2.566666715E-02 -6.390236616E-01
 2.570833266E-02 -6.390237808E-01
 2.575000003E-02 -6.390221715E-01
 2.579166740E-02 -6.390224099E-01
 2.583333291E-02 -6.390211582E-01
 2.587500028E-02 -6.390215755E-01
 2.591666579E-02 -6.390202045E-01
 2.595833316E-02 -6.390205026E-01
 2.600000054E-02 -6.390190721E-01
 2.604166605E-02 -6.390194297E-01
 2.608333342E-02 -6.390178800E-01
 2.612500079E-02 -6.390181184E-01
 2.616666630E-02 -6.390165091E-01
 2.620833367E-02 -6.390163898E-01
 2.624999918E-02 -6.390144825E-01
 2.629166655E-02 -6.390142441E-01
 2.633333392E-02 -6.390122175E-01
 2.637499943E-02 -6.390119791E-01
 2.641666681E-02 -6.390100121E-01
 2.645833418E-02 -6.390100121E-01
 2.649999969E-02 -6.390083432E-01
 2.654166706E-02 -6.390084028E-01
 2.658333257E-02 -6.390069723E-01
 2.662499994E-02 -6.390073895E-01
 2.666666731E-02 -6.390061975E-01
 2.670833282E-02 -6.390067339E-01
 2.675000019E-02 -6.390055418E-01
 2.679166757E-02 -6.390059590E-01
 2.683333308E-02 -6.390045285E-01
 2.687500045E-02 -6.390047669E-01
 2.691666596E-02 -6.390033364E-01
 2.695833333E-02 -6.390036941E-01
 2.700000070E-02 -6.390024424E-01
 2.704166621E-02 -6.390031576E-01
 2.708333358E-02 -6.390022039E-01
 2.712499909E-02 -6.390031576E-01
 2.716666646E-02 -6.390023232E-01
 2.720833384E-02 -6.390034556E-01
 2.724999934E-02 -6.390030384E-01
 2.729166672E-02 -6.390044093E-01
 2.733333409E-02 -6.390039921E-01
 2.737499960E-02 -6.390050650E-01
 2.741666697E-02 -6.390044689E-01
 2.745833248E-02 -6.390055418E-01
 2.749999985E-02 -6.390048265E-01
 2.754166722E-02 -6.390058398E-01
 2.758333273E-02 -6.390050650E-01
 2.762500010E-02 -6.390060186E-01
 2.766666748E-02 -6.390051842E-01
 2.770833299E-02 -6.390061378E-01
 2.775000036E-02 -6.390054226E-01
 2.779166587E-02 -6.390064955E-01
 2.783333324E-02 -6.390057206E-01
 2.787500061E-02 -6.390067935E-01
 2.791666612E-02 -6.390060186E-01
 2.795833349E-02 -6.390069127E-01
 2.800000086E-02 -6.390061378E-01
 2.804166637E-02 -6.390070319E-01
 2.808333375E-02 -6.390060782E-01
 2.812499925E-02 -6.390069127E-01
 2.816666663E-02 -6.390059590E-01
 2.820833400E-02 -6.390067339E-01
 2.824999951E-02 -6.390056610E-01
 2.829166688E-02 -6.390062571E-01
 2.833333425E-02 -6.390051842E-01
 2.837499976E-02 -6.390060186E-01
 2.841666713E-02 -6.390051246E-01
 2.845833264E-02 -6.390061975E-01
 2.850000001E-02 -6.390054822E-01
 2.854166739E-02 -6.390068531E-01
 2.858333290E-02 -6.390064955E-01
 2.862500027E-02 -6.390081048E-01
 2.866666578E-02 -6.390081048E-01
 2.870833315E-02 -6.390096545E-01
 2.875000052E-02 -6.390094161E-01
 2.879166603E-02 -6.390110254E-01
 2.883333340E-02 -6.390106678E-01
 2.887500077E-02 -6.390120983E-01
 2.891666628E-02 -6.390116811E-01
 2.895833366E-02 -6.390131116E-01
 2.899999917E-02 -6.390128136E-01
 2.904166654E-02 -6.390142441E-01
 2.908333391E-02 -6.390138865E-01
 2.912499942E-02 -6.390148997E-01
 2.916666679E-02 -6.390140057E-01
 2.920833416E-02 -6.390148401E-01
 2.924999967E-02 -6.390137076E-01
 2.929166704E-02 -6.390143633E-01
 2.933333255E-02 -6.390132904E-01
 2.937499993E-02 -6.390140057E-01
 2.941666730E-02 -6.390131116E-01
 2.945833281E-02 -6.390143633E-01
 2.950000018E-02 -6.390140653E-01
 2.954166755E-02 -6.390156150E-01
 2.958333306E-02 -6.390154958E-01
 2.962500043E-02 -6.390171647E-01
 2.966666594E-02 -6.390168667E-01
 2.970833331E-02 -6.390184164E-01
 2.975000069E-02 -6.390179992E-01
 2.979166619E-02 -6.390189528E-01
 2.983333357E-02 -6.390178204E-01
 2.987499908E-02 -6.390182972E-01
 2.991666645E-02 -6.390169263E-01
 2.995833382E-02 -6.390173435E-01
 2.999999933E-02 -6.390159726E-01
 3.004166670E-02 -6.390162706E-01
 3.008333407E-02 -6.390146017E-01
 3.012499958E-02 -6.390146613E-01
 3.016666695E-02 -6.390129328E-01
 3.020833246E-02 -6.390132308E-01
 3.024999984E-02 -6.390115619E-01
 3.029166721E-02 -6.390116811E-01
 3.033333272E-02 -6.390100718E-01
 3.037500009E-02 -6.390103102E-01
 3.041666746E-02 -6.390089989E-01
 3.045833297E-02 -6.390099525E-01
 3.050000034E-02 -6.390094161E-01
 3.054166585E-02 -6.390109062E-01
 3.058333322E-02 -6.390106678E-01
 3.062500060E-02 -6.390122175E-01
 3.066666611E-02 -6.390120387E-01
 3.070833348E-02 -6.390139461E-01
 3.075000085E-02 -6.390140653E-01
 3.079166636E-02 -6.390160322E-01
 3.083333373E-02 -6.390162110E-01
 3.087499924E-02 -6.390179992E-01
 3.091666661E-02 -6.390181184E-01
 3.095833398E-02 -6.390201449E-01
 3.099999949E-02 -6.390204430E-01
 3.104166687E-02 -6.390227079E-01
 3.108333424E-02 -6.390231252E-01
 3.112499975E-02 -6.390253305E-01
 3.116666712E-02 -6.390258670E-01
 3.120833263E-02 -6.390282512E-01
 3.125000000E-02 -6.390284896E-01
 3.129166737E-02 -6.390306950E-01
 3.133333474E-02 -6.390309930E-01
 3.137499839E-02 -6.390330791E-01
 3.141666576E-02 -6.390336752E-01
 3.145833313E-02 -6.390362978E-01
 3.150000051E-02 -6.390372515E-01
 3.154166788E-02 -6.390401721E-01
 3.158333153E-02 -6.390410066E-01
 3.162499890E-02 -6.390435696E-01
 3.166666627E-02 -6.390441656E-01
 3.170833364E-02 -6.390459538E-01
 3.175000101E-02 -6.390452385E-01
 3.179166839E-02 -6.390457749E-01
 3.183333203E-02 -6.390438676E-01
 3.187499940E-02 -6.390444040E-01
 3.191666678E-02 -6.390438676E-01
 3.195833415E-02 -6.390451193E-01
 3.200000152E-02 -6.390450597E-01
 3.204166517E-02 -6.390468478E-01
 3.208333254E-02 -6.390459538E-01
 3.212499991E-02 -6.390469670E-01
 3.216666728E-02 -6.390463710E-01
 3.220833465E-02 -6.390484571E-01
 3.224999830E-02 -6.390480995E-01
 3.229166567E-02 -6.390501261E-01
 3.233333305E-02 -6.390512586E-01
 3.237500042E-02 -6.390537024E-01
 3.241666779E-02 -6.390531659E-01
 3.245833516E-02 -6.390542388E-01
 3.249999881E-02 -6.390532255E-01
 3.254166618E-02 -6.390536427E-01
 3.258333355E-02 -6.390525699E-01
 3.262500092E-02 -6.390532851E-01
 3.266666830E-02 -6.390519142E-01
 3.270833194E-02 -6.390529275E-01
 3.274999931E-02 -6.390524507E-01
 3.279166669E-02 -6.390542984E-01
 3.283333406E-02 -6.390544176E-01
 3.287500143E-02 -6.390562057E-01
 3.291666508E-02 -6.390557885E-01
 3.295833245E-02 -6.390568018E-01
 3.299999982E-02 -6.390556097E-01
 3.304166719E-02 -6.390561461E-01
 3.308333457E-02 -6.390547752E-01
 3.312499821E-02 -6.390547752E-01
 3.316666558E-02 -6.390526891E-01
 3.320833296E-02 -6.390525103E-01
 3.325000033E-02 -6.390503049E-01
 3.329166770E-02 -6.390500665E-01
 3.333333507E-02 -6.390478015E-01
 3.337499872E-02 -6.390471458E-01
 3.341666609E-02 -6.390445828E-01
 3.345833346E-02 -6.390438080E-01
 3.350000083E-02 -6.390411854E-01
 3.354166821E-02 -6.390405893E-01
 3.358333185E-02 -6.390382051E-01
 3.362499923E-02 -6.390377283E-01
 3.366666660E-02 -6.390353441E-01
 3.370833397E-02 -6.390350461E-01
 3.375000134E-02 -6.390330791E-01
 3.379166499E-02 -6.390332580E-01
 3.383333236E-02 -6.390314698E-01
 3.387499973E-02 -6.390317082E-01
 3.391666710E-02 -6.390301585E-01
 3.395833448E-02 -6.390303969E-01
 3.400000185E-02 -6.390289664E-01
 3.404166549E-02 -6.390293837E-01
 3.408333287E-02 -6.390277147E-01
 3.412500024E-02 -6.390278339E-01
 3.416666761E-02 -6.390258074E-01
 3.420833498E-02 -6.390258074E-01
 3.424999863E-02 -6.390237212E-01
 3.429166600E-02 -6.390236616E-01
 3.433333337E-02 -6.390218139E-01
 3.437500075E-02 -6.390216351E-01
 3.441666812E-02 -6.390197277E-01
 3.445833176E-02 -6.390198469E-01
 3.449999914E-02 -6.390181184E-01
 3.454166651E-02 -6.390183568E-01
 3.458333388E-02 -6.390167475E-01
 3.462500125E-02 -6.390169859E-01
 3.466666490E-02 -6.390153170E-01
 3.470833227E-02 -6.390157342E-01
 3.474999964E-02 -6.390144229E-01
 3.479166701E-02 -6.390149593E-01
 3.483333439E-02 -6.390135288E-01
 3.487500176E-02 -6.390139461E-01
 3.491666541E-02 -6.390122771E-01
 3.495833278E-02 -6.390125751E-01
 3.500000015E-02 -6.390109062E-01
 3.504166752E-02 -6.390112042E-01
 3.508333489E-02 -6.390094757E-01
 3.512499854E-02 -6.390098333E-01
 3.516666591E-02 -6.390083432E-01
 3.520833328E-02 -6.390087008E-01
 3.525000066E-02 -6.390073299E-01
 3.529166803E-02 -6.390079260E-01
 3.533333167E-02 -6.390062571E-01
 3.537499905E-02 -6.390064955E-01
 3.541666642E-02 -6.390047073E-01
 3.545833379E-02 -6.390047073E-01
 3.550000116E-02 -6.390028000E-01
 3.554166481E-02 -6.390029192E-01
 3.558333218E-02 -6.390011311E-01
 3.562499955E-02 -6.390014291E-01
 3.566666692E-02 -6.389999390E-01
 3.570833430E-02 -6.390007138E-01
 3.575000167E-02 -6.389995813E-01
 3.579166532E-02 -6.390003562E-01
 3.583333269E-02 -6.389992237E-01
 3.587500006E-02 -6.389999986E-01
 3.591666743E-02 -6.389989257E-01
 3.595833480E-02 -6.389999986E-01
 3.599999845E-02 -6.389991045E-01
 3.604166582E-02 -6.390002370E-01
 3.608333319E-02 -6.389994025E-01
 3.612500057E-02 -6.390005946E-01
 3.616666794E-02 -6.390001178E-01
 3.620833158E-02 -6.390019059E-01
 3.624999896E-02 -6.390017271E-01
 3.629166633E-02 -6.390035152E-01
 3.633333370E-02 -6.390035152E-01
 3.637500107E-02 -6.390053034E-01
 3.641666844E-02 -6.390050650E-01
 3.645833209E-02 -6.390067339E-01